Versions of QCH codes (OpenMOLCAS, ORCA 6, BAGEL) compatible with SHARC4.0.1 (and where to find them on the Devana cluster)

ORCA 6.0.0 - /storage-apps/software/orca/orca_6_0_0_shared_openmpi416_avx2
OpenMOLCAS 24.10 - /storage-apps/easybuild-soft/software/OpenMolcas/24.10-intel-2023a 
BAGEL - /storage-apps/software/bagel/
